###############################################################################
# Cheetham, A.K.;Fender, B.E.F.;Fuess, H.;Wright, A.F. (1976)
# Acta Crystallographica B (24,1968-38,1982) 32, 94-97
# A powder neutron diffraction of lanthanum and cerium trifluorides
# 
# CIF by ICSD-for-WWW,  Copyright 2003 FIZ-Karlsruhe & A.W.Hewat (hewat@ill.fr)
# NOT TO BE PUBLISHED IN ANY FORM. See http://icsd.ill.fr/icsd/conditions.html
###############################################################################

data_4-ICSD
_database_code_ICSD                4
_audit_creation_date               1980-01-01
_chemical_name_systematic
'Cerium fluoride'
_chemical_formula_structural       
'Ce F3'
_chemical_formula_sum              
'Ce1 F3'
_publ_section_title                
'Ce1 F3'
loop_
_citation_id
_citation_journal_abbrev
_citation_year
_citation_journal_volume
_citation_page_first
_citation_page_last
_citation_journal_id_ASTM
primary 'Acta Crystallographica B (24,1968-38,198' 1976 32 94 97 ACBCAR
loop_
_publ_author_name
Cheetham, A.K.;Fender, B.E.F.;Fuess, H.;Wright, A.F.
_cell_length_a                     7.131(1)
_cell_length_b                     7.131(1)
_cell_length_c                     7.286(1)
_cell_angle_alpha                  90.
_cell_angle_beta                   90.
_cell_angle_gamma                  120.
_cell_volume                       320.8601
_cell_formula_units_Z              6.000
_symmetry_space_group_name_H-M     'P -3 c 1'
_symmetry_Int_Tables_number        165
_refine_ls_R_factor_all            0.1252
loop_
_symmetry_equiv_pos_site_id
_symmetry_equiv_pos_as_xyz
   1   'x-y, -y, -z+1/2'
   2   '-x, -x+y, -z+1/2'
   3   'y, x, -z+1/2'
   4   'x-y, x, -z'
   5   'y, -x+y, -z'
   6   '-x, -y, -z'
   7   '-x+y, y, z+1/2'
   8   'x, x-y, z+1/2'
   9   '-y, -x, z+1/2'
  10   '-x+y, -x, z'
  11   '-y, x-y, z'
  12   'x, y, z'
loop_
_atom_type_symbol
_atom_type_oxidation_number
Ce3+     3.
F1-     -1.
loop_
_atom_site_label
_atom_site_type_symbol
_atom_site_symmetry_multiplicity
_atom_site_Wyckoff_symbol
_atom_site_fract_x
_atom_site_fract_y
_atom_site_fract_z
_atom_site_B_iso_or_equiv
_atom_site_occupancy
Ce1 Ce3+ 6 f 0.6607(7) 0 0.25 0.29(5) 1.
F1 F1- 12 g 0.3659(3) 0.0540(2) 0.0824(4) 1.17(3) 1.
F2 F1- 4 d 0.3333 0.6666 0.1871(5) 1.01(6) 1.
F3 F1- 2 a 0 0 0.25 1.60(15) 1.
#End of data_4-ICSD

